LAMMPS (29 Aug 2024 - Update 1)
#DPD

dimension      	3
units          	lj
#comm_modify		vel yes
comm_modify    	mode single cutoff 2.0 vel yes
#newton			off

#atom_style		hybrid atomic charge
atom_style		atomic
#atom_style		charge

#neighbor			0.3 bin
#neigh_modify		delay 0 every 4 check no
neighbor       	2.5 bin
neigh_modify   	delay 2

region			domain block -5 5 -5 5 -5 5 units box
#create_box		2 domain
create_box		1 domain
Created orthogonal box = (-5 -5 -5) to (5 5 5)
  2 by 2 by 2 MPI processor grid
change_box 		all boundary p p p
Changing box ...

#lattice			fcc 4
create_atoms		1 random 1500 15255 domain
Created 1500 atoms
  using lattice units in orthogonal box = (-5 -5 -5) to (5 5 5)
  create_atoms CPU = 0.001 seconds
#create_atoms		1 random 3000 15255 domain
#create_atoms		2 random 1500 47214 domain
#create_atoms		3 random 98 30182 domain

#dump				dump1 all atom 2 checkargeclas.lammpstrj

#set				type 2 charge  1.0
#set				type 3 charge -1.0
mass				* 1.0

pair_style		dpd 1.0 1.0 419084618


#kspace_style 		pppm 5.0
#pair_style		hybrid/overlay coul/long 2.5 dpd 1.0 1.0 419084618

#kspace_style		ewald 5.0
#pair_coeff		* * lj/cut/coul/long 0 1
pair_coeff		1 1 75.0 4.5 1.0
#pair_coeff		2 1 75.0 4.5 1.0
#pair_coeff		2 2 25.0 4.5 1.0
#pair_coeff		* * coul/long

thermo_style		custom step temp pe press
thermo 200

#variable			f file tmp.times
#variable			s equal next(f)
#dump				conf_run all custom 100 ./frames/Conf_Run.* id type x y z vx vy vz
#dump_modify		conf_run every v_s
#dump_modify		conf_run sort id

dump			dump0 all atom 200 test.lammpstrj

velocity			all create 1.0 8178251
fix				integrator all nve

timestep       	0.07
run 20000
Generated 0 of 0 mixed pair_coeff terms from geometric mixing rule
Neighbor list info ...
  update: every = 1 steps, delay = 2 steps, check = yes
  max neighbors/atom: 2000, page size: 100000
  master list distance cutoff = 3.5
  ghost atom cutoff = 3.5
  binsize = 1.75, bins = 6 6 6
  1 neighbor lists, perpetual/occasional/extra = 1 0 0
  (1) pair dpd, perpetual
      attributes: half, newton on
      pair build: half/bin/atomonly/newton
      stencil: half/bin/3d
      bin: standard
WARNING: Communication cutoff adjusted to 3.5 (../comm.cpp:739)
Per MPI rank memory allocation (min/avg/max) = 3.211 | 3.213 | 3.215 Mbytes
   Step          Temp          PotEng         Press     
         0   1              11.803575      19.037332    
       200   1.4324379      3.1880632      13.879152    
       400   1.3309935      3.048002       13.72336     
       600   1.3408898      3.1013675      13.912632    
       800   1.3842103      3.0656563      13.849946    
      1000   1.3637058      3.005355       13.605996    
      1200   1.3326184      3.0175692      13.55787     
      1400   1.371316       3.0569715      13.663076    
      1600   1.3364828      3.0689059      13.627523    
      1800   1.3333589      3.0936094      13.621886    
      2000   1.3679672      3.0353354      13.618776    
      2200   1.3391522      3.1369539      13.683694    
      2400   1.398834       3.17734        13.971395    
      2600   1.3508105      3.0946691      13.722391    
      2800   1.3573831      3.0475016      13.731616    
      3000   1.3690971      3.0120034      13.636633    
      3200   1.3644241      3.1174307      13.841206    
      3400   1.3507108      3.0356979      13.728333    
      3600   1.3299064      3.0126276      13.542531    
      3800   1.3740989      3.1032634      13.646919    
      4000   1.3614945      3.079277       13.772982    
      4200   1.3748635      2.9832001      13.706133    
      4400   1.3479147      3.0783329      13.62665     
      4600   1.3259384      3.1078764      13.673883    
      4800   1.3227959      3.0486385      13.718542    
      5000   1.3633907      3.0000521      13.796386    
      5200   1.3575866      3.0868061      13.747363    
      5400   1.3145149      3.0783236      13.683293    
      5600   1.3340584      3.0903993      13.679021    
      5800   1.3310163      3.0092912      13.637065    
      6000   1.38647        3.0194341      13.643792    
      6200   1.322751       3.0919685      13.674643    
      6400   1.379939       3.0565697      13.733448    
      6600   1.3538143      3.1239212      13.773784    
      6800   1.3829567      3.044229       13.799231    
      7000   1.3806638      3.0807743      13.617619    
      7200   1.3249344      3.0601281      13.609286    
      7400   1.3913953      3.0782708      13.771753    
      7600   1.3398439      3.0748294      13.658019    
      7800   1.3490408      3.1309568      13.738964    
      8000   1.3683604      3.1450716      13.871725    
      8200   1.3560622      3.0731374      13.686638    
      8400   1.3459064      3.0508789      13.657545    
      8600   1.3791691      3.0467683      13.783098    
      8800   1.354885       3.020388       13.55891     
      9000   1.3163336      3.107858       13.705038    
      9200   1.418199       3.1612657      13.854469    
      9400   1.3193839      3.1226872      13.667971    
      9600   1.3604927      3.0310303      13.655007    
      9800   1.3599054      3.0678369      13.772411    
     10000   1.3145532      3.016132       13.658477    
     10200   1.3466973      3.0681582      13.558949    
     10400   1.353194       3.0475         13.739236    
     10600   1.3956139      3.0678331      13.780019    
     10800   1.3738529      3.0848164      13.662094    
     11000   1.3942406      3.0635997      13.667297    
     11200   1.3549881      3.1245107      13.862569    
     11400   1.3739302      3.0506441      13.613503    
     11600   1.3786582      3.061306       13.716888    
     11800   1.3323137      3.0232497      13.716003    
     12000   1.3633433      2.9994796      13.699949    
     12200   1.3438086      2.9874629      13.689717    
     12400   1.3493023      3.1190866      13.705921    
     12600   1.3909818      3.066245       13.830631    
     12800   1.4074306      3.1001092      13.787664    
     13000   1.3599667      3.0523929      13.668879    
     13200   1.3528713      3.0508008      13.640535    
     13400   1.3298525      3.1079027      13.720182    
     13600   1.3169085      3.0462622      13.677847    
     13800   1.3451341      3.0894972      13.906145    
     14000   1.3331224      3.1035722      13.672133    
     14200   1.3000423      3.053252       13.625409    
     14400   1.3187647      3.0757525      13.648014    
     14600   1.3842473      3.0874144      13.780211    
     14800   1.3212774      3.0499556      13.57573     
     15000   1.3911331      3.0711396      13.751909    
     15200   1.359738       3.0604108      13.725181    
     15400   1.3557825      3.0675831      13.669542    
     15600   1.300273       3.0647225      13.594531    
     15800   1.3544978      3.0767149      13.708313    
     16000   1.3436841      3.0611959      13.750394    
     16200   1.4121895      3.0928932      13.837169    
     16400   1.3516175      3.0823744      13.752543    
     16600   1.3696759      3.1238753      13.840662    
     16800   1.36676        3.1024204      13.880661    
     17000   1.3476463      3.0563269      13.766596    
     17200   1.3903268      3.1408863      13.795221    
     17400   1.4037789      3.0162144      13.82802     
     17600   1.4046724      3.0627218      13.744453    
     17800   1.3366394      3.0961402      13.755475    
     18000   1.3422886      2.9599592      13.594599    
     18200   1.3609876      3.0163886      13.643442    
     18400   1.3686229      2.9819536      13.704487    
     18600   1.3640313      3.1311189      13.790968    
     18800   1.3448475      3.0890031      13.738252    
     19000   1.4024852      3.0644633      13.678401    
     19200   1.3540411      3.1173316      13.766603    
     19400   1.3343452      3.0593602      13.647534    
     19600   1.364609       3.033231       13.794712    
     19800   1.3957918      3.140881       13.837998    
     20000   1.3813296      3.0553877      13.764068    
Loop time of 13.91 on 8 procs for 20000 steps with 1500 atoms

Performance: 8695904.869 tau/day, 1437.815 timesteps/s, 2.157 Matom-step/s
96.6% CPU use with 8 MPI tasks x no OpenMP threads

MPI task timing breakdown:
Section |  min time  |  avg time  |  max time  |%varavg| %total
---------------------------------------------------------------
Pair    | 2.1195     | 2.291      | 2.4465     |   7.0 | 16.47
Neigh   | 3.7108     | 3.8261     | 3.9462     |   4.2 | 27.51
Comm    | 7.0572     | 7.264      | 7.5245     |   6.1 | 52.22
Output  | 0.045553   | 0.053432   | 0.06065    |   2.2 |  0.38
Modify  | 0.045739   | 0.047168   | 0.052908   |   1.0 |  0.34
Other   |            | 0.4283     |            |       |  3.08

Nlocal:          187.5 ave         196 max         175 min
Histogram: 1 0 1 1 0 0 2 0 0 3
Nghost:        2409.25 ave        2427 max        2387 min
Histogram: 1 1 0 0 0 2 2 0 0 2
Neighs:          25168 ave       27693 max       22450 min
Histogram: 1 0 1 0 2 1 1 0 1 1

Total # of neighbors = 201344
Ave neighs/atom = 134.22933
Neighbor list builds = 4309
Dangerous builds = 0
#run 10000

Total wall time: 0:00:13
