LAMMPS (29 Aug 2024 - Update 1)
#DPD

dimension      	3
units          	lj
#comm_modify		vel yes
comm_modify    	mode single cutoff 2.0 vel yes
#newton			off

#atom_style		hybrid atomic charge
atom_style		atomic
#atom_style		charge

#neighbor			0.3 bin
#neigh_modify		delay 0 every 4 check no
neighbor       	2.5 bin
neigh_modify   	delay 2

region			domain block -5 5 -5 5 -5 5 units box
#create_box		2 domain
create_box		1 domain
Created orthogonal box = (-5 -5 -5) to (5 5 5)
  2 by 2 by 2 MPI processor grid
change_box 		all boundary p p p
Changing box ...

#lattice			fcc 4
create_atoms		1 random 1500 15255 domain
Created 1500 atoms
  using lattice units in orthogonal box = (-5 -5 -5) to (5 5 5)
  create_atoms CPU = 0.001 seconds
#create_atoms		1 random 3000 15255 domain
#create_atoms		2 random 1500 47214 domain
#create_atoms		3 random 98 30182 domain

#dump				dump1 all atom 2 checkargeclas.lammpstrj

#set				type 2 charge  1.0
#set				type 3 charge -1.0
mass				* 1.0

pair_style		dpd 1.0 1.0 419084618


#kspace_style 		pppm 5.0
#pair_style		hybrid/overlay coul/long 2.5 dpd 1.0 1.0 419084618

#kspace_style		ewald 5.0
#pair_coeff		* * lj/cut/coul/long 0 1
pair_coeff		1 1 25.0 4.5 1.0
#pair_coeff		2 1 75.0 4.5 1.0
#pair_coeff		2 2 25.0 4.5 1.0
#pair_coeff		* * coul/long

thermo_style		custom step temp pe press
thermo 200

#variable			f file tmp.times
#variable			s equal next(f)
#dump				conf_run all custom 100 ./frames/Conf_Run.* id type x y z vx vy vz
#dump_modify		conf_run every v_s
#dump_modify		conf_run sort id

dump			dump0 all atom 200 test.lammpstrj

velocity			all create 1.0 8178251
fix				integrator all nvt temp 1.0 1.0 0.1

timestep       	0.1
run 20000
Generated 0 of 0 mixed pair_coeff terms from geometric mixing rule
Neighbor list info ...
  update: every = 1 steps, delay = 2 steps, check = yes
  max neighbors/atom: 2000, page size: 100000
  master list distance cutoff = 3.5
  ghost atom cutoff = 3.5
  binsize = 1.75, bins = 6 6 6
  1 neighbor lists, perpetual/occasional/extra = 1 0 0
  (1) pair dpd, perpetual
      attributes: half, newton on
      pair build: half/bin/atomonly/newton
      stencil: half/bin/3d
      bin: standard
WARNING: Communication cutoff adjusted to 3.5 (../comm.cpp:739)
Per MPI rank memory allocation (min/avg/max) = 3.211 | 3.213 | 3.215 Mbytes
   Step          Temp          PotEng         Press     
         0   1              3.934525       7.3413559    
       200   0.99842246     1.5258506      5.8053978    
       400   1.0060157      1.4721895      5.7946646    
       600   0.9949473      1.4528814      5.7577962    
       800   0.99539457     1.5400306      5.8607241    
      1000   0.97446231     1.4754054      5.7186432    
      1200   1.0454096      1.5191114      5.8152301    
      1400   0.97010883     1.4914491      5.7436617    
      1600   0.98560973     1.5315364      5.8034452    
      1800   1.0081345      1.5061526      5.8614104    
      2000   0.98470122     1.4608116      5.7250958    
      2200   1.0239156      1.5373772      5.8022044    
      2400   1.0089667      1.4848604      5.7302042    
      2600   0.9661671      1.5491009      5.7130174    
      2800   1.0090517      1.5090443      5.8744215    
      3000   0.98570291     1.4883609      5.8947836    
      3200   1.0153649      1.4985596      5.7730638    
      3400   0.98672019     1.4966777      5.7426691    
      3600   0.97154324     1.4955039      5.8002655    
      3800   0.99687784     1.5374925      5.7609715    
      4000   0.97431852     1.5372435      5.7735081    
      4200   0.98392343     1.5165972      5.7247769    
      4400   0.98823021     1.4870613      5.7559805    
      4600   1.0125508      1.4894023      5.7276131    
      4800   0.99946077     1.4977325      5.7533035    
      5000   0.99874303     1.5173315      5.8085675    
      5200   1.0270548      1.5138285      5.8416197    
      5400   1.0024341      1.5026787      5.8485113    
      5600   1.0022891      1.4806978      5.7868981    
      5800   0.99961418     1.5138326      5.876369     
      6000   0.99760081     1.4952518      5.7502336    
      6200   1.0040564      1.5171775      5.8065617    
      6400   1.0286683      1.5367665      5.8737881    
      6600   0.9673266      1.5338462      5.774918     
      6800   0.97638826     1.5060113      5.747068     
      7000   0.98696591     1.5320851      5.8269442    
      7200   1.0119892      1.4872852      5.8163629    
      7400   1.0272563      1.5625223      5.9451132    
      7600   1.0036519      1.5098223      5.7465579    
      7800   0.979884       1.4683647      5.7423988    
      8000   0.97117569     1.4792352      5.6709837    
      8200   1.0187719      1.4974789      5.8337813    
      8400   0.99489161     1.5456551      5.7661888    
      8600   0.98889375     1.4905651      5.8104731    
      8800   0.98520983     1.5030485      5.7355732    
      9000   0.99676703     1.5285567      5.8160933    
      9200   1.0084985      1.4964657      5.7955998    
      9400   1.0037514      1.5543695      5.7999624    
      9600   0.99658357     1.5100006      5.8719154    
      9800   1.0162294      1.5337113      5.8418343    
     10000   0.9930746      1.5323962      5.7841038    
     10200   1.0265765      1.553864       5.8636722    
     10400   1.0143483      1.4830387      5.7068991    
     10600   1.0028465      1.4668203      5.8018712    
     10800   0.99763605     1.5081221      5.7940637    
     11000   0.97771433     1.5176036      5.78098      
     11200   0.99962423     1.4617299      5.7448496    
     11400   1.0205946      1.5634542      5.8670071    
     11600   0.998193       1.5168938      5.8268501    
     11800   0.99825689     1.4678064      5.7531766    
     12000   0.99208661     1.5057432      5.756776     
     12200   1.0681533      1.5328103      5.9014407    
     12400   1.0311184      1.5006885      5.8843477    
     12600   1.0004549      1.4917354      5.7574316    
     12800   0.98734207     1.4960139      5.8299154    
     13000   0.9983144      1.5023946      5.8138432    
     13200   1.0247347      1.505324       5.809615     
     13400   0.99860123     1.484416       5.8247569    
     13600   1.0193222      1.5230517      5.8006333    
     13800   0.98702086     1.5409744      5.8665864    
     14000   1.0122068      1.5409355      5.8625383    
     14200   0.99559508     1.535026       5.8421686    
     14400   1.0243051      1.4909454      5.8541637    
     14600   0.96788633     1.4555257      5.6300497    
     14800   1.0094929      1.4659742      5.7817732    
     15000   0.98933199     1.490231       5.7648582    
     15200   1.0050393      1.5161718      5.8386916    
     15400   1.0047234      1.5087859      5.8493196    
     15600   0.99178539     1.4689351      5.7968514    
     15800   0.99855576     1.4809368      5.7537119    
     16000   1.0236966      1.5242414      5.8404101    
     16200   1.0370568      1.4898633      5.8889605    
     16400   0.98463635     1.5084342      5.8168215    
     16600   0.9854639      1.5059255      5.7973954    
     16800   0.99661255     1.5006393      5.8183408    
     17000   1.026875       1.4868406      5.8285442    
     17200   0.99200414     1.4969272      5.8082538    
     17400   0.98916352     1.4821497      5.7405931    
     17600   1.0267872      1.4767317      5.8029858    
     17800   1.0014806      1.5076238      5.7127385    
     18000   1.0008453      1.4870647      5.7511546    
     18200   0.98525376     1.4688545      5.7022611    
     18400   1.0179399      1.4829572      5.8446927    
     18600   0.9880915      1.4830046      5.7350173    
     18800   0.98000863     1.5107615      5.7587903    
     19000   1.0143792      1.5150389      5.7596028    
     19200   1.0107143      1.4968061      5.7190954    
     19400   1.0160438      1.502806       5.862373     
     19600   0.98770741     1.4858212      5.7677605    
     19800   1.0176379      1.4831561      5.7330098    
     20000   0.97459554     1.5062799      5.7080185    
Loop time of 29.8624 on 8 procs for 20000 steps with 1500 atoms

Performance: 5786542.427 tau/day, 669.739 timesteps/s, 1.005 Matom-step/s
85.9% CPU use with 8 MPI tasks x no OpenMP threads

MPI task timing breakdown:
Section |  min time  |  avg time  |  max time  |%varavg| %total
---------------------------------------------------------------
Pair    | 3.2415     | 3.5109     | 3.792      |   9.0 | 11.76
Neigh   | 8.1152     | 8.4066     | 8.6584     |   6.8 | 28.15
Comm    | 12.893     | 13.395     | 13.943     |   9.5 | 44.86
Output  | 0.12527    | 0.13957    | 0.15624    |   2.9 |  0.47
Modify  | 2.9228     | 3.0029     | 3.0734     |   3.6 | 10.06
Other   |            | 1.408      |            |       |  4.71

Nlocal:          187.5 ave         200 max         178 min
Histogram: 1 3 1 0 0 0 0 1 1 1
Nghost:        2411.38 ave        2438 max        2381 min
Histogram: 1 1 0 0 2 0 1 1 1 1
Neighs:        25152.8 ave       28484 max       22863 min
Histogram: 1 3 0 1 0 0 1 1 0 1

Total # of neighbors = 201222
Ave neighs/atom = 134.148
Neighbor list builds = 5645
Dangerous builds = 0
#run 10000

Total wall time: 0:00:29
