LAMMPS (29 Aug 2024 - Update 1)
#DPD

dimension      	3
units          	lj
#comm_modify		vel yes
comm_modify    	mode single cutoff 2.0 vel yes
#newton			off

#atom_style		hybrid atomic charge
atom_style		atomic
#atom_style		charge

#neighbor			0.3 bin
#neigh_modify		delay 0 every 4 check no
neighbor       	2.5 bin
neigh_modify   	delay 2

region			domain block -5 5 -5 5 -5 5 units box
create_box		1 domain
Created orthogonal box = (-5 -5 -5) to (5 5 5)
  2 by 2 by 2 MPI processor grid
change_box 		all boundary p p p
Changing box ...

#lattice			fcc 4
create_atoms		1 random 50 15255 domain
Created 50 atoms
  using lattice units in orthogonal box = (-5 -5 -5) to (5 5 5)
  create_atoms CPU = 0.003 seconds
#create_atoms		2 random 1500 47214 domain
#create_atoms		3 random 98 30182 domain

#dump				dump1 all atom 2 checkargeclas.lammpstrj

#set				type 2 charge  1.0
#set				type 3 charge -1.0
mass				* 1.0

pair_style		dpd 1.0 1.0 419084618

#kspace_style 		pppm 5.0
#pair_style		hybrid/overlay coul/long 2.5 dpd 1.0 1.0 419084618

#kspace_style		ewald 5.0
#pair_coeff		* * lj/cut/coul/long 0 1
pair_coeff		1 1 25.0 4.5 1.0
#pair_coeff		1 2 75.0 4.5 1.0
#pair_coeff		2 2 25.0 4.5 1.0
#pair_coeff		* * coul/long

thermo_style		custom step temp pe press
thermo 200

#variable			f file tmp.times
#variable			s equal next(f)
#dump				conf_run all custom 100 ./frames/Conf_Run.* id type x y z vx vy vz
#dump_modify		conf_run every v_s
#dump_modify		conf_run sort id

dump			dump0 all atom 200 test.lammpstrj

velocity			all create 1.0 8178251
fix				integrator all nve

timestep       	0.001
run 20000
Generated 0 of 0 mixed pair_coeff terms from geometric mixing rule
Neighbor list info ...
  update: every = 1 steps, delay = 2 steps, check = yes
  max neighbors/atom: 2000, page size: 100000
  master list distance cutoff = 3.5
  ghost atom cutoff = 3.5
  binsize = 1.75, bins = 6 6 6
  1 neighbor lists, perpetual/occasional/extra = 1 0 0
  (1) pair dpd, perpetual
      attributes: half, newton on
      pair build: half/bin/atomonly/newton
      stencil: half/bin/3d
      bin: standard
WARNING: Communication cutoff adjusted to 3.5 (../comm.cpp:739)
Per MPI rank memory allocation (min/avg/max) = 3.06 | 3.06 | 3.06 Mbytes
   Step          Temp          PotEng         Press     
         0   1              0.22825649     0.02808808   
       200   1.132593       0.044095308    0.059972201  
       400   1.1015291      0.081662869    0.065051808  
       600   1.1664328      0.0034905158   0.058806888  
       800   1.1571426      0.013765144    0.053138473  
      1000   1.1528545      0.021018231    0.060380918  
      1200   1.1480694      0.023319189    0.05857949   
      1400   1.1141753      0.069708559    0.04311818   
      1600   1.1154343      0.038246699    0.065965469  
      1800   1.1270175      0.04290048     0.049063111  
      2000   1.1356098      0.032645948    0.082247174  
      2200   1.1347809      0.015242908    0.064380273  
      2400   1.1353902      0.0082675156   0.054552219  
      2600   1.1336704      0.0052965979   0.05863122   
      2800   1.1256903      0.025309902    0.053622049  
      3000   1.1475133      0.0090256811   0.058487331  
      3200   1.1487717      0.017414515    0.042666744  
      3400   1.1591438      0.0011809925   0.057682319  
      3600   1.120179       0.072366508    0.056685664  
      3800   1.1563256      0.010899554    0.056471897  
      4000   1.1597782      0.0097141538   0.051263923  
      4200   1.157489       0.018786321    0.055441408  
      4400   1.1273464      0.061293208    0.045361209  
      4600   1.1332841      0.012863154    0.053808075  
      4800   1.1223687      0.020732094    0.057342153  
      5000   1.1134073      0.019621299    0.060887399  
      5200   1.126741       0.0048037105   0.046948888  
      5400   1.0968223      0.049146942    0.060324844  
      5600   1.1154771      0.039004388    0.068496523  
      5800   1.135993       0.011263877    0.065756805  
      6000   1.1102257      0.046233956    0.065916441  
      6200   1.084285       0.096928678    0.058867362  
      6400   1.0988153      0.087150607    0.073957679  
      6600   1.1699896      0.0011259903   0.055358493  
      6800   1.167452       0.0024037315   0.06051693   
      7000   1.1651623      0.010436759    0.058417296  
      7200   1.1671037      0.0025194116   0.055871574  
      7400   1.1088534      0.063778743    0.061423692  
      7600   1.1249314      0.053839362    0.051814597  
      7800   1.1333377      0.039573635    0.056182702  
      8000   1.1435683      0.01736        0.054835331  
      8200   1.1555297      0.00012650049  0.057215212  
      8400   1.1200035      0.049081353    0.075396465  
      8600   1.1500577      0.010364109    0.061063963  
      8800   1.1216027      0.030632612    0.05336357   
      9000   1.1218864      0.027576875    0.046042851  
      9200   1.1143196      0.033498914    0.061535212  
      9400   1.1249775      0.012099566    0.047482641  
      9600   1.1111072      0.027641011    0.047319906  
      9800   1.1333199      0              0.055532673  
     10000   1.1333199      0              0.055532673  
     10200   1.132129       0.0011025666   0.05808834   
     10400   1.1335672      0              0.055544791  
     10600   1.1335672      0              0.055544791  
     10800   1.1317461      0.0024863073   0.057804784  
     11000   1.1298135      0.0094278318   0.055025642  
     11200   1.1284762      0.009527333    0.055592232  
     11400   1.1215154      0.014855088    0.06150738   
     11600   1.1229896      0.0093001004   0.058266557  
     11800   1.1115527      0.016454466    0.064109678  
     12000   1.1232212      0.00017492696  0.055364788  
     12200   1.0580634      0.096486556    0.059179277  
     12400   1.0873102      0.093217418    0.056441737  
     12600   1.1612279      0.0038467058   0.057915145  
     12800   1.1637843      0              0.057025431  
     13000   1.1327554      0.040768555    0.064232639  
     13200   1.160117       0.041601958    0.071100472  
     13400   1.1789378      0.00025799484  0.056991432  
     13600   1.1791691      0              0.057779287  
     13800   1.1791639      7.1023691e-06  0.057718657  
     14000   1.1729387      0.011067358    0.055152038  
     14200   1.183258       0              0.05797964   
     14400   1.183258       0              0.05797964   
     14600   1.1796         0.0055205915   0.053973326  
     14800   1.1808134      0.0022252362   0.058549284  
     15000   1.161914       0.029076416    0.06205223   
     15200   1.1565981      0.053493699    0.042099531  
     15400   1.1753635      0.0064679556   0.057149482  
     15600   1.1404843      0.050351555    0.046743723  
     15800   1.1653954      0.019426954    0.054767125  
     16000   1.1754712      0              0.057598091  
     16200   1.1418814      0.035714744    0.052827703  
     16400   1.1676264      0.0050024651   0.055381439  
     16600   1.1696548      0.00039239126  0.059390234  
     16800   1.1517938      0.032299408    0.047685363  
     17000   1.157376       0.03427388     0.058652089  
     17200   1.165229       0.011388647    0.052766613  
     17400   1.1591767      0.015492634    0.060983144  
     17600   1.154752       0.017310144    0.063401107  
     17800   1.1359833      0.036034263    0.077504906  
     18000   1.1575064      0.0053917996   0.05279184   
     18200   1.1554908      0.0096121608   0.063408443  
     18400   1.1577733      0.009908055    0.062759549  
     18600   1.1573399      0.0083065151   0.054903269  
     18800   1.159048       0.004145603    0.055876262  
     19000   1.1504887      0.01371083     0.057177993  
     19200   1.1434562      0.023748061    0.064830167  
     19400   1.1613963      0.015654376    0.064195168  
     19600   1.1761559      0              0.057631637  
     19800   1.1661911      0.014447026    0.066225679  
     20000   1.1148662      0.099898117    0.057949724  
Loop time of 1.02458 on 8 procs for 20000 steps with 50 atoms

Performance: 1686547.037 tau/day, 19520.220 timesteps/s, 976.011 katom-step/s
89.2% CPU use with 8 MPI tasks x no OpenMP threads

MPI task timing breakdown:
Section |  min time  |  avg time  |  max time  |%varavg| %total
---------------------------------------------------------------
Pair    | 0.0040616  | 0.0051025  | 0.0063731  |   1.0 |  0.50
Neigh   | 0.00031754 | 0.00035889 | 0.00041025 |   0.0 |  0.04
Comm    | 0.68518    | 0.7286     | 0.76351    |   3.4 | 71.11
Output  | 0.020278   | 0.022966   | 0.029735   |   2.3 |  2.24
Modify  | 0.0029222  | 0.0033477  | 0.0039066  |   0.5 |  0.33
Other   |            | 0.2642     |            |       | 25.79

Nlocal:           6.25 ave          10 max           3 min
Histogram: 1 0 3 0 1 1 0 0 1 1
Nghost:         85.625 ave          95 max          77 min
Histogram: 1 0 2 0 2 0 1 1 0 1
Neighs:         26.375 ave          54 max           7 min
Histogram: 1 0 3 1 1 0 0 1 0 1

Total # of neighbors = 211
Ave neighs/atom = 4.22
Neighbor list builds = 55
Dangerous builds = 0
#run 10000

Total wall time: 0:00:01
