ITEM: TIMESTEP
0
ITEM: NUMBER OF ATOMS
50
ITEM: BOX BOUNDS pp pp pp
-5.0000000000000000e+00 5.0000000000000000e+00
-5.0000000000000000e+00 5.0000000000000000e+00
-5.0000000000000000e+00 5.0000000000000000e+00
ITEM: ATOMS id type xs ys zs
2 1 0.0344577 0.130311 0.143633
7 1 0.20439 0.176605 0.200278
9 1 0.0656299 0.042551 0.155254
3 1 0.0421424 0.286731 0.0884681
6 1 0.0323267 0.314216 0.0283932
1 1 0.482924 0.496759 0.0339054
10 1 0.074686 0.246885 0.390081
4 1 0.448805 0.0617829 0.38562
5 1 0.292155 0.244805 0.434988
8 1 0.0759394 0.314289 0.253557
15 1 0.029227 0.218036 0.530845
16 1 0.0934136 0.00158937 0.712619
14 1 0.296076 0.153775 0.500981
11 1 0.184414 0.443263 0.915858
12 1 0.190543 0.455993 0.877837
13 1 0.424727 0.389123 0.99825
18 1 0.12106 0.649196 0.0311715
19 1 0.109995 0.68484 0.104966
20 1 0.160036 0.729944 0.169119
17 1 0.0711566 0.929149 0.21312
22 1 0.319256 0.735911 0.460613
21 1 0.0437316 0.997816 0.297889
24 1 0.387871 0.939533 0.737609
26 1 0.361334 0.936491 0.603305
23 1 0.241422 0.5782 0.804616
25 1 0.0575857 0.842194 0.758913
32 1 0.761647 0.00934444 0.0520806
31 1 0.531936 0.256685 0.106846
33 1 0.529374 0.188332 0.28945
35 1 0.565902 0.108725 0.338911
27 1 0.901353 0.0419632 0.275316
28 1 0.882863 0.285077 0.296491
29 1 0.90007 0.470361 0.352915
30 1 0.990328 0.437701 0.448699
34 1 0.91083 0.325357 0.281048
37 1 0.798075 0.248986 0.703849
39 1 0.847517 0.225419 0.614329
36 1 0.944269 0.331095 0.720418
38 1 0.587259 0.0673423 0.822678
42 1 0.594139 0.699365 0.235023
40 1 0.823144 0.587625 0.207246
41 1 0.844861 0.572147 0.0794565
43 1 0.993983 0.875827 0.0270648
47 1 0.750018 0.549451 0.615965
48 1 0.785715 0.506372 0.599946
45 1 0.524359 0.900557 0.66788
46 1 0.623302 0.839327 0.567089
50 1 0.987659 0.583856 0.863392
44 1 0.746651 0.969591 0.908817
49 1 0.878552 0.826023 0.967156
ITEM: TIMESTEP
200
ITEM: NUMBER OF ATOMS
50
ITEM: BOX BOUNDS pp pp pp
-5.0000000000000000e+00 5.0000000000000000e+00
-5.0000000000000000e+00 5.0000000000000000e+00
-5.0000000000000000e+00 5.0000000000000000e+00
ITEM: ATOMS id type xs ys zs
2 1 0.0664931 0.118538 0.114779
7 1 0.204123 0.188809 0.166918
9 1 0.0512336 0.0649474 0.185027
3 1 0.0639316 0.253162 0.10001
6 1 0.00700269 0.300891 0.0223136
1 1 0.453092 0.47065 0.0629848
10 1 0.0728919 0.228372 0.398087
4 1 0.426302 0.0497377 0.378541
5 1 0.273976 0.243152 0.4423
8 1 0.0891165 0.342043 0.227556
15 1 0.00912647 0.196355 0.521755
16 1 0.0907512 -0.00932317 0.740101
14 1 0.29022 0.125275 0.521603
11 1 0.158964 0.469075 0.93992
12 1 0.221786 0.461385 0.868778
13 1 0.394508 0.416509 0.992918
18 1 0.111345 0.61757 -0.00229838
19 1 0.0886059 0.703291 0.0851862
20 1 0.162165 0.706884 0.151896
17 1 0.0799159 0.900752 0.221367
22 1 0.321846 0.765121 0.443311
21 1 0.0174909 1.02907 0.277094
24 1 0.388924 0.930977 0.761403
26 1 0.368273 0.92442 0.591029
23 1 0.251854 0.575904 0.829724
25 1 0.0629838 0.841325 0.730033
32 1 0.743177 -0.00279192 0.0502882
31 1 0.518993 0.284654 0.123448
33 1 0.56646 0.176258 0.266285
35 1 0.596734 0.128435 0.339449
27 1 0.925305 0.0198544 0.282164
28 1 0.880642 0.244157 0.277217
29 1 0.937827 0.447012 0.374203
30 1 0.988143 0.436106 0.450749
34 1 0.918121 0.364671 0.287121
37 1 0.831232 0.259769 0.676678
39 1 0.84395 0.214135 0.631744
36 1 0.950931 0.332362 0.743766
38 1 0.565433 0.1016 0.831906
42 1 0.584489 0.673588 0.251061
40 1 0.813084 0.5937 0.22955
41 1 0.871318 0.598203 0.0741405
43 1 1.00052 0.900834 -0.00216594
47 1 0.755335 0.598878 0.601268
48 1 0.774279 0.516642 0.604879
45 1 0.553578 0.89587 0.662352
46 1 0.601858 0.851729 0.592674
50 1 0.971399 0.556972 0.865902
44 1 0.718654 0.959009 0.91126
49 1 0.910725 0.839979 0.975681
ITEM: TIMESTEP
400
ITEM: NUMBER OF ATOMS
50
ITEM: BOX BOUNDS pp pp pp
-5.0000000000000000e+00 5.0000000000000000e+00
-5.0000000000000000e+00 5.0000000000000000e+00
-5.0000000000000000e+00 5.0000000000000000e+00
ITEM: ATOMS id type xs ys zs
2 1 0.0991767 0.114176 0.0789016
7 1 0.203856 0.201012 0.133558
9 1 0.0388413 0.0818641 0.217354
3 1 0.0878384 0.216928 0.116601
6 1 -0.0204387 0.290233 0.0111854
1 1 0.42326 0.44454 0.0920641
10 1 0.0710978 0.20986 0.406093
4 1 0.4038 0.0376925 0.371462
5 1 0.255797 0.2415 0.449611
8 1 0.102294 0.369798 0.201556
15 1 -0.0109741 0.174675 0.512665
16 1 0.0880888 -0.0202357 0.767583
14 1 0.284365 0.0967751 0.542224
11 1 0.125278 0.494044 0.977567
12 1 0.261268 0.467613 0.846134
13 1 0.364289 0.443895 0.987586
18 1 0.101766 0.585464 -0.0365667
19 1 0.0650654 0.721558 0.0641161
20 1 0.166308 0.684496 0.136761
17 1 0.0886752 0.872356 0.229614
22 1 0.324436 0.794331 0.426008
21 1 -0.0022487 1.06121 0.259295
24 1 0.389978 0.922422 0.785198
26 1 0.375213 0.91235 0.578752
23 1 0.262286 0.573608 0.854832
25 1 0.0683819 0.840456 0.701154
32 1 0.724706 -0.0149283 0.0484959
31 1 0.506049 0.312623 0.14005
33 1 0.602221 0.166342 0.240027
35 1 0.628892 0.145989 0.343081
27 1 0.940104 -0.00507635 0.290483
28 1 0.875711 0.197345 0.258524
29 1 0.972842 0.423729 0.389639
30 1 0.988702 0.434445 0.45865
34 1 0.92812 0.409877 0.292615
37 1 0.85891 0.288501 0.667919
39 1 0.845861 0.184902 0.630748
36 1 0.957593 0.333628 0.767113
38 1 0.543607 0.135858 0.841135
42 1 0.574838 0.64781 0.267099
40 1 0.803024 0.599776 0.251853
41 1 0.897776 0.624258 0.0688245
43 1 1.00712 0.925896 -0.0314036
47 1 0.756383 0.660328 0.587085
48 1 0.767113 0.514889 0.609297
45 1 0.578068 0.897033 0.665843
46 1 0.585143 0.858281 0.609242
50 1 0.955139 0.530087 0.868413
44 1 0.690656 0.948428 0.913702
49 1 0.942842 0.853879 0.984214
ITEM: TIMESTEP
600
ITEM: NUMBER OF ATOMS
50
ITEM: BOX BOUNDS pp pp pp
-5.0000000000000000e+00 5.0000000000000000e+00
-5.0000000000000000e+00 5.0000000000000000e+00
-5.0000000000000000e+00 5.0000000000000000e+00
ITEM: ATOMS id type xs ys zs
2 1 0.131869 0.109841 0.0429873
7 1 0.203589 0.213216 0.100198
9 1 0.0463406 0.10786 0.231654
3 1 0.111745 0.180694 0.133192
8 1 0.115471 0.397552 0.175556
1 1 0.393428 0.418431 0.121144
10 1 0.0693038 0.191348 0.4141
4 1 0.381297 0.0256472 0.364383
5 1 0.237618 0.239847 0.456923
13 1 0.334069 0.471281 0.982253
12 1 0.300753 0.473841 0.823488
14 1 0.278509 0.068275 0.562846
11 1 0.0927731 0.513382 1.01835
22 1 0.327026 0.823541 0.408705
19 1 0.0415247 0.739826 0.043046
20 1 0.170452 0.662108 0.121626
17 1 0.0974345 0.843959 0.237862
24 1 0.391032 0.913866 0.808992
26 1 0.382153 0.90028 0.566476
23 1 0.272717 0.571313 0.87994
25 1 0.0737801 0.839587 0.672274
16 1 0.0854264 0.968852 0.795065
18 1 0.0910022 0.558989 0.926037
43 1 0.014523 0.95188 0.939151
6 1 0.95212 0.279574 5.72499e-05
31 1 0.493105 0.340592 0.156652
33 1 0.637769 0.156708 0.213159
35 1 0.661263 0.163261 0.347322
34 1 0.938119 0.455082 0.298108
28 1 0.87078 0.150533 0.239831
29 1 1.00249 0.397083 0.382573
30 1 0.994622 0.436145 0.489054
21 1 0.964308 0.0884072 0.257513
37 1 0.886366 0.32024 0.661167
39 1 0.847994 0.152662 0.627745
36 1 0.964255 0.334895 0.790461
38 1 0.52178 0.170115 0.850364
15 1 0.968925 0.152994 0.503575
42 1 0.565187 0.622032 0.283137
40 1 0.792963 0.605852 0.274157
41 1 0.924234 0.650314 0.0635085
32 1 0.706236 0.972935 0.0467035
27 1 0.948706 0.965831 0.300849
47 1 0.757396 0.721958 0.572889
48 1 0.759982 0.512956 0.613727
45 1 0.599081 0.913244 0.691406
46 1 0.571904 0.849785 0.603736
50 1 0.938879 0.503203 0.870923
44 1 0.662658 0.937846 0.916145
49 1 0.974146 0.866859 0.992954
ITEM: TIMESTEP
800
ITEM: NUMBER OF ATOMS
50
ITEM: BOX BOUNDS pp pp pp
-5.0000000000000000e+00 5.0000000000000000e+00
-5.0000000000000000e+00 5.0000000000000000e+00
-5.0000000000000000e+00 5.0000000000000000e+00
ITEM: ATOMS id type xs ys zs
2 1 0.164562 0.105506 0.00707293
7 1 0.203323 0.225419 0.0668378
9 1 0.0672062 0.137822 0.239634
3 1 0.135652 0.144459 0.149783
8 1 0.128648 0.425306 0.149556
1 1 0.363597 0.392321 0.150223
10 1 0.0675097 0.172836 0.422106
4 1 0.358795 0.013602 0.357304
5 1 0.219439 0.238195 0.464234
13 1 0.30385 0.498666 0.976921
12 1 0.340237 0.480069 0.800842
14 1 0.272653 0.0397749 0.583467
11 1 0.0609375 0.529139 1.06183
22 1 0.329616 0.85275 0.391402
19 1 0.0179841 0.758093 0.0219758
20 1 0.174595 0.63972 0.106491
17 1 0.106194 0.815562 0.246109
24 1 0.392086 0.90531 0.832787
26 1 0.389092 0.888209 0.554199
23 1 0.283149 0.569017 0.905047
25 1 0.0791782 0.838718 0.643394
16 1 0.0827641 0.957939 0.822546
18 1 0.0795694 0.536094 0.885931
43 1 0.0219999 0.977953 0.909675
6 1 0.924679 0.268915 -0.0110709
31 1 0.480161 0.368561 0.173254
33 1 0.673317 0.147073 0.18629
35 1 0.693634 0.180533 0.351563
34 1 0.948118 0.500288 0.303602
28 1 0.861082 0.104922 0.218792
29 1 1.03182 0.369203 0.370866
30 1 1.00087 0.439082 0.524098
21 1 0.922311 0.110497 0.264371
37 1 0.913822 0.351979 0.654414
39 1 0.850127 0.120423 0.624741
36 1 0.970917 0.336161 0.813808
38 1 0.499954 0.204373 0.859592
15 1 0.948825 0.131313 0.494485
42 1 0.555536 0.596255 0.299176
40 1 0.782903 0.611928 0.296461
41 1 0.950692 0.676369 0.0581926
32 1 0.687765 0.960799 0.0449111
27 1 0.957263 0.936679 0.311242
47 1 0.758409 0.783589 0.558693
48 1 0.752851 0.511023 0.618158
45 1 0.620562 0.932217 0.720879
46 1 0.558199 0.838526 0.594321
50 1 0.922619 0.476319 0.873434
44 1 0.634661 0.927265 0.918588
49 1 1.00538 0.879747 1.00173
ITEM: TIMESTEP
1000
ITEM: NUMBER OF ATOMS
50
ITEM: BOX BOUNDS pp pp pp
-5.0000000000000000e+00 5.0000000000000000e+00
-5.0000000000000000e+00 5.0000000000000000e+00
-5.0000000000000000e+00 5.0000000000000000e+00
ITEM: ATOMS id type xs ys zs
2 1 0.197254 0.101171 -0.0288414
7 1 0.203056 0.237623 0.0334776
9 1 0.0880698 0.167783 0.247614
3 1 0.159558 0.108225 0.166374
8 1 0.141825 0.453061 0.123555
1 1 0.333765 0.366212 0.179302
10 1 0.0657156 0.154324 0.430112
4 1 0.336292 0.00155677 0.350225
5 1 0.20126 0.236542 0.471546
31 1 0.467217 0.39653 0.189856
29 1 0.0611464 0.341322 0.359159
38 1 0.478127 0.23863 0.868821
12 1 0.379722 0.486297 0.778196
14 1 0.266797 0.0112748 0.604089
30 1 0.00711689 0.442018 0.559142
22 1 0.332206 0.88196 0.374099
19 1 -0.00538281 0.776774 0.000647993
20 1 0.178738 0.617332 0.0913555
17 1 0.114953 0.787165 0.254357
49 1 0.0366145 0.892636 0.0104964
11 1 0.0291019 0.544897 0.105321
24 1 0.39314 0.896754 0.856582
26 1 0.396032 0.876139 0.541923
23 1 0.293657 0.57161 0.925166
25 1 0.0845763 0.837849 0.614515
16 1 0.0819208 0.945626 0.848262
18 1 0.0681366 0.513199 0.845826
43 1 0.0276577 1.00543 0.881964
13 1 0.273555 0.521163 0.976578
28 1 0.833649 0.0598358 0.186124
21 1 0.898051 0.132062 0.282857
33 1 0.708865 0.137439 0.159422
35 1 0.726004 0.197805 0.355805
15 1 0.928724 0.109633 0.485396
37 1 0.941278 0.383718 0.647662
39 1 0.852259 0.0881829 0.621738
36 1 0.977579 0.337428 0.837156
50 1 0.906359 0.449435 0.875944
6 1 0.897237 0.258256 0.977801
42 1 0.545886 0.570477 0.315214
40 1 0.772843 0.618003 0.318764
41 1 0.976976 0.70201 0.0531343
32 1 0.669295 0.948663 0.0431187
27 1 0.965819 0.907527 0.321634
34 1 0.958117 0.545494 0.309095
47 1 0.759423 0.845219 0.544497
48 1 0.74572 0.50909 0.622589
45 1 0.642043 0.95119 0.750351
46 1 0.544493 0.827268 0.584906
44 1 0.606663 0.916683 0.921031
ITEM: TIMESTEP
1200
ITEM: NUMBER OF ATOMS
50
ITEM: BOX BOUNDS pp pp pp
-5.0000000000000000e+00 5.0000000000000000e+00
-5.0000000000000000e+00 5.0000000000000000e+00
-5.0000000000000000e+00 5.0000000000000000e+00
ITEM: ATOMS id type xs ys zs
2 1 0.229946 0.0968361 -0.0647558
7 1 0.202789 0.249827 0.000117529
9 1 0.108933 0.197745 0.255594
3 1 0.183465 0.0719907 0.182965
8 1 0.155002 0.480815 0.0975553
1 1 0.303933 0.340102 0.208382
10 1 0.0639215 0.135811 0.438118
4 1 0.313659 -0.00968701 0.342999
5 1 0.183081 0.23489 0.478857
31 1 0.454274 0.424499 0.206458
29 1 0.0904722 0.313441 0.347452
38 1 0.456301 0.272888 0.87805
12 1 0.419206 0.492525 0.755549
14 1 0.260941 -0.0172253 0.62471
30 1 0.0142595 0.445613 0.593159
22 1 0.334926 0.910368 0.356943
19 1 -0.0280749 0.798474 -0.0228147
20 1 0.182881 0.594944 0.0762204
17 1 0.123712 0.758768 0.262604
49 1 0.0678488 0.905525 0.0192676
11 1 -0.0027336 0.560655 0.148808
24 1 0.394194 0.888198 0.880376
26 1 0.402971 0.864068 0.529646
23 1 0.308585 0.587923 0.931299
25 1 0.0899745 0.83698 0.585635
16 1 0.0868847 0.927644 0.869603
18 1 0.0567038 0.490304 0.80572
43 1 0.0275082 1.03857 0.858629
13 1 0.23884 0.52994 0.99022
28 1 0.805179 0.014407 0.152502
21 1 0.874827 0.15397 0.302297
33 1 0.744413 0.127805 0.132554
35 1 0.758375 0.215076 0.360046
15 1 0.908624 0.087952 0.476306
37 1 0.967839 0.414798 0.641937
39 1 0.854392 0.0559432 0.618734
36 1 0.984241 0.338694 0.860503
50 1 0.890099 0.42255 0.878455
6 1 0.869796 0.247597 0.966673
42 1 0.536235 0.544699 0.331252
40 1 0.762782 0.624079 0.341068
41 1 1.00258 0.724633 0.0502109
32 1 0.650824 0.936526 0.0413263
27 1 0.974376 0.878375 0.332027
34 1 0.968117 0.5907 0.314588
47 1 0.760436 0.906849 0.530301
48 1 0.738589 0.507157 0.627019
45 1 0.663523 0.970163 0.779824
46 1 0.530787 0.81601 0.575492
44 1 0.578665 0.906102 0.923474
ITEM: TIMESTEP
1400
ITEM: NUMBER OF ATOMS
50
ITEM: BOX BOUNDS pp pp pp
-5.0000000000000000e+00 5.0000000000000000e+00
-5.0000000000000000e+00 5.0000000000000000e+00
-5.0000000000000000e+00 5.0000000000000000e+00
ITEM: ATOMS id type xs ys zs
3 1 0.207372 0.0357563 0.199556
8 1 0.167413 0.506381 0.0722558
31 1 0.44133 0.452468 0.22306
1 1 0.274102 0.313993 0.237461
5 1 0.164902 0.233237 0.486169
9 1 0.1298 0.22769 0.263555
10 1 0.0621275 0.117299 0.446124
29 1 0.119795 0.285577 0.335765
30 1 0.0366923 0.458221 0.612617
43 1 0.0270917 0.0720611 0.835404
2 1 0.262639 0.092501 0.89933
18 1 0.0452711 0.467409 0.765615
7 1 0.202523 0.26203 0.966757
38 1 0.434475 0.307146 0.887278
12 1 0.458691 0.498753 0.732903
20 1 0.186729 0.575912 0.0626374
41 1 0.0281691 0.746779 0.047661
49 1 0.0990831 0.918414 0.0280388
17 1 0.132472 0.730371 0.270852
22 1 0.342425 0.926569 0.341788
4 1 0.286248 0.991277 0.333773
25 1 0.0953726 0.836111 0.556756
26 1 0.409911 0.851998 0.51737
14 1 0.255086 0.954275 0.645331
13 1 0.203722 0.535561 1.00363
23 1 0.324978 0.606224 0.935408
16 1 0.0921158 0.909315 0.890833
24 1 0.395248 0.879642 0.904171
33 1 0.77996 0.11817 0.105686
28 1 0.77671 -0.0310218 0.11888
21 1 0.851612 0.175871 0.321732
35 1 0.790738 0.232356 0.364293
15 1 0.888523 0.0662713 0.467216
39 1 0.856525 0.0237035 0.615731
37 1 0.97911 0.436866 0.65077
6 1 0.842354 0.236939 0.955545
36 1 0.990902 0.339961 0.88385
50 1 0.873839 0.395666 0.880965
11 1 0.965431 0.576412 0.192295
32 1 0.632354 0.92439 0.0395339
42 1 0.526584 0.518921 0.34729
40 1 0.752722 0.630155 0.363371
34 1 0.978116 0.635906 0.320082
27 1 0.982933 0.849223 0.34242
48 1 0.731457 0.505223 0.63145
46 1 0.517081 0.804751 0.566077
47 1 0.761449 0.96848 0.516105
45 1 0.685004 0.989137 0.809297
44 1 0.550668 0.89552 0.925916
19 1 0.949258 0.820651 0.953349
ITEM: TIMESTEP
1600
ITEM: NUMBER OF ATOMS
50
ITEM: BOX BOUNDS pp pp pp
-5.0000000000000000e+00 5.0000000000000000e+00
-5.0000000000000000e+00 5.0000000000000000e+00
-5.0000000000000000e+00 5.0000000000000000e+00
ITEM: ATOMS id type xs ys zs
3 1 0.231279 -0.000478037 0.216147
8 1 0.168394 0.505225 0.0639802
31 1 0.428386 0.480437 0.239662
1 1 0.24427 0.287884 0.26654
5 1 0.146723 0.231585 0.49348
9 1 0.151804 0.251699 0.260282
10 1 0.0603334 0.0987869 0.45413
29 1 0.14798 0.263649 0.335311
30 1 0.0781385 0.47877 0.618297
43 1 0.0266752 0.105551 0.812179
2 1 0.295331 0.0881659 0.863416
18 1 0.0339989 0.444505 0.725654
7 1 0.202256 0.274234 0.933397
38 1 0.412648 0.341403 0.896507
12 1 0.498175 0.504982 0.710257
20 1 0.191294 0.590464 0.0650503
41 1 0.0537531 0.768925 0.0451112
49 1 0.130317 0.931303 0.03681
17 1 0.141231 0.701974 0.279099
22 1 0.356796 0.932405 0.328095
4 1 0.251964 1.00261 0.323084
25 1 0.100771 0.835242 0.527876
26 1 0.416851 0.839927 0.505093
14 1 0.24923 0.925774 0.665953
13 1 0.179316 0.534321 0.984028
23 1 0.341371 0.624525 0.939516
16 1 0.0973468 0.890987 0.912064
24 1 0.396302 0.871086 0.927965
33 1 0.815508 0.108536 0.0788183
28 1 0.748241 -0.0764506 0.0852583
21 1 0.835431 0.188689 0.33496
35 1 0.816065 0.258717 0.374746
15 1 0.868423 0.0445907 0.458126
39 1 0.858658 -0.00853622 0.612727
37 1 0.971206 0.451001 0.673237
6 1 0.814913 0.22628 0.944416
36 1 0.997564 0.341227 0.907198
50 1 0.857579 0.368782 0.883476
11 1 0.933595 0.59217 0.235783
32 1 0.613883 0.912254 0.0377415
42 1 0.516933 0.493144 0.363328
40 1 0.742662 0.63623 0.385675
34 1 0.988115 0.681112 0.325575
27 1 0.991489 0.820071 0.352813
48 1 0.724326 0.50329 0.635881
46 1 0.503375 0.793493 0.556662
47 1 0.762462 1.03011 0.501909
45 1 0.706485 1.00811 0.838769
44 1 0.52267 0.884939 0.928359
19 1 0.926591 0.842827 0.929513
ITEM: TIMESTEP
1800
ITEM: NUMBER OF ATOMS
50
ITEM: BOX BOUNDS pp pp pp
-5.0000000000000000e+00 5.0000000000000000e+00
-5.0000000000000000e+00 5.0000000000000000e+00
-5.0000000000000000e+00 5.0000000000000000e+00
ITEM: ATOMS id type xs ys zs
29 1 0.173672 0.247115 0.356339
10 1 0.0585393 0.0802747 0.462136
31 1 0.415442 0.508405 0.256264
1 1 0.220819 0.263542 0.29626
5 1 0.128544 0.229932 0.500792
9 1 0.16992 0.268545 0.234886
4 1 0.217577 0.0140634 0.312479
30 1 0.120939 0.499768 0.62315
43 1 0.0262586 0.139042 0.788954
2 1 0.328024 0.0838308 0.827501
18 1 0.0315454 0.419263 0.690672
7 1 0.201989 0.286437 0.900037
38 1 0.390822 0.375661 0.905736
20 1 0.198072 0.615935 0.0696207
41 1 0.0793372 0.791071 0.0425614
49 1 0.161552 0.944192 0.0455811
17 1 0.14999 0.673577 0.287346
22 1 0.371247 0.938152 0.314413
3 1 0.255209 0.963247 0.232643
8 1 0.16321 0.489329 0.0704062
25 1 0.106169 0.834373 0.498997
26 1 0.42374 0.82789 0.492777
14 1 0.243374 0.897274 0.686574
13 1 0.158862 0.5369 0.947563
23 1 0.357764 0.642827 0.943625
16 1 0.102578 0.872658 0.933294
24 1 0.397356 0.86253 0.95176
33 1 0.851056 0.0989018 0.0519502
15 1 0.848322 0.02291 0.449036
21 1 0.825153 0.187526 0.339774
35 1 0.835491 0.29906 0.393614
42 1 0.507283 0.467366 0.379366
50 1 0.841319 0.341898 0.885986
37 1 0.95313 0.467025 0.691552
6 1 0.787472 0.215621 0.933288
36 1 1.00423 0.342493 0.930545
47 1 0.763476 0.0917402 0.487713
45 1 0.727966 0.0270828 0.868242
11 1 0.90176 0.607927 0.27927
32 1 0.595413 0.900117 0.0359491
27 1 1.00005 0.791065 0.363258
40 1 0.732601 0.642306 0.407978
34 1 0.99811 0.726171 0.331017
28 1 0.719772 0.878121 0.0516364
48 1 0.717195 0.501357 0.640311
46 1 0.48972 0.782201 0.547287
19 1 0.903924 0.865004 0.905676
44 1 0.494672 0.874357 0.930802
39 1 0.860791 0.959224 0.609724
12 1 0.537659 0.51121 0.68761
ITEM: TIMESTEP
2000
ITEM: NUMBER OF ATOMS
50
ITEM: BOX BOUNDS pp pp pp
-5.0000000000000000e+00 5.0000000000000000e+00
-5.0000000000000000e+00 5.0000000000000000e+00
-5.0000000000000000e+00 5.0000000000000000e+00
ITEM: ATOMS id type xs ys zs
29 1 0.190908 0.227274 0.391782
10 1 0.0567453 0.0617625 0.470143
31 1 0.402498 0.536374 0.272866
1 1 0.211729 0.24275 0.318258
5 1 0.110366 0.22828 0.508103
9 1 0.182132 0.28515 0.202798
4 1 0.183087 0.0256841 0.302209
30 1 0.16374 0.520767 0.628003
43 1 0.0258421 0.172532 0.765729
2 1 0.360716 0.0794957 0.791587
18 1 0.0365069 0.390714 0.65763
7 1 0.201722 0.298641 0.866677
38 1 0.368995 0.409919 0.914964
20 1 0.20489 0.641557 0.0741928
41 1 0.104921 0.813213 0.040021
49 1 0.192786 0.957081 0.0543523
17 1 0.15875 0.64518 0.295594
22 1 0.385699 0.9439 0.30073
3 1 0.279241 0.926809 0.248805
8 1 0.157945 0.473122 0.0772686
25 1 0.111567 0.833504 0.470117
26 1 0.428109 0.817774 0.478119
14 1 0.237518 0.868774 0.707196
13 1 0.138448 0.53964 0.91066
23 1 0.374157 0.661128 0.947734
16 1 0.107809 0.854333 0.954514
24 1 0.397043 0.853792 0.976157
33 1 0.886604 0.0892675 0.0250822
15 1 0.828222 0.00122933 0.439946
21 1 0.814953 0.185919 0.344346
35 1 0.854838 0.339846 0.412724
42 1 0.497632 0.441588 0.395405
50 1 0.825059 0.315014 0.888497
37 1 0.927638 0.486355 0.707927
6 1 0.76003 0.204962 0.92216
36 1 1.01089 0.34376 0.953893
47 1 0.764489 0.15337 0.473517
45 1 0.749446 0.0460559 0.897714
11 1 0.869924 0.623685 0.322758
32 1 0.576942 0.887981 0.0341567
27 1 1.00934 0.781953 0.39079
40 1 0.722541 0.648382 0.430282
34 1 1.00738 0.751337 0.319371
28 1 0.691302 0.832692 0.0180145
48 1 0.710064 0.499424 0.644742
46 1 0.478585 0.768988 0.540254
19 1 0.881257 0.887181 0.88184
44 1 0.468041 0.863959 0.932642
39 1 0.862924 0.926984 0.606721
12 1 0.577144 0.517438 0.664964
ITEM: TIMESTEP
2200
ITEM: NUMBER OF ATOMS
50
ITEM: BOX BOUNDS pp pp pp
-5.0000000000000000e+00 5.0000000000000000e+00
-5.0000000000000000e+00 5.0000000000000000e+00
-5.0000000000000000e+00 5.0000000000000000e+00
ITEM: ATOMS id type xs ys zs
8 1 0.15268 0.456915 0.084131
9 1 0.193865 0.301916 0.169878
29 1 0.202855 0.204507 0.440135
10 1 0.0549512 0.0432503 0.478149
1 1 0.208407 0.224722 0.328178
4 1 0.148598 0.0373048 0.291939
42 1 0.487981 0.415811 0.411443
5 1 0.0921866 0.226627 0.515415
18 1 0.0414725 0.362163 0.624588
43 1 0.0254256 0.206022 0.742505
2 1 0.393409 0.0751606 0.755673
36 1 0.0175501 0.345026 0.97724
7 1 0.201456 0.310845 0.833317
38 1 0.347169 0.444176 0.924193
20 1 0.211709 0.667178 0.078765
41 1 0.131182 0.833563 0.0439716
49 1 0.22402 0.969969 0.0631235
17 1 0.167509 0.616783 0.303841
31 1 0.389554 0.564343 0.289468
34 1 0.0159789 0.761716 0.288482
27 1 0.0192931 0.787628 0.437566
25 1 0.116965 0.832635 0.441238
22 1 0.40015 0.949647 0.287048
3 1 0.303274 0.890372 0.264966
26 1 0.429824 0.810033 0.460476
30 1 0.206541 0.541766 0.632856
14 1 0.231663 0.840274 0.727817
46 1 0.470103 0.753401 0.536205
13 1 0.118034 0.542381 0.873757
23 1 0.39055 0.679429 0.951842
16 1 0.112364 0.837799 0.969244
44 1 0.452271 0.855137 0.927423
24 1 0.38587 0.843476 1.00761
33 1 0.922152 0.0796332 -0.00178586
21 1 0.804752 0.184313 0.348918
47 1 0.765502 0.215001 0.459321
35 1 0.874185 0.380632 0.431834
48 1 0.702995 0.497474 0.649174
37 1 0.902142 0.505688 0.724302
6 1 0.732589 0.194303 0.911032
45 1 0.770927 0.0650291 0.927187
50 1 0.808799 0.288129 0.891007
32 1 0.558472 0.875844 0.0323643
28 1 0.662833 0.787263 -0.0156074
40 1 0.71248 0.654458 0.452585
11 1 0.838089 0.639443 0.366245
15 1 0.808121 0.979549 0.430856
12 1 0.616566 0.523682 0.642316
39 1 0.865056 0.894745 0.603717
19 1 0.85859 0.909358 0.858004
ITEM: TIMESTEP
2400
ITEM: NUMBER OF ATOMS
50
ITEM: BOX BOUNDS pp pp pp
-5.0000000000000000e+00 5.0000000000000000e+00
-5.0000000000000000e+00 5.0000000000000000e+00
-5.0000000000000000e+00 5.0000000000000000e+00
ITEM: ATOMS id type xs ys zs
8 1 0.147415 0.440709 0.0909934
9 1 0.205597 0.318682 0.136958
29 1 0.214675 0.181594 0.489234
10 1 0.0531571 0.0247381 0.486155
1 1 0.205213 0.20684 0.337353
4 1 0.114108 0.0489255 0.28167
42 1 0.478331 0.390033 0.427481
5 1 0.0740077 0.224974 0.522727
18 1 0.0464381 0.333611 0.591546
43 1 0.0250091 0.239512 0.71928
2 1 0.426101 0.0708255 0.719758
36 1 0.0242121 0.346293 1.00059
7 1 0.201189 0.323048 0.799957
38 1 0.325343 0.478434 0.933422
20 1 0.218527 0.6928 0.0833371
41 1 0.161006 0.852002 0.0646502
49 1 0.255255 0.982858 0.0718947
17 1 0.176268 0.588386 0.312089
31 1 0.376611 0.592312 0.30607
34 1 0.0245769 0.772039 0.257415
27 1 0.0292511 0.793359 0.484519
25 1 0.122363 0.831766 0.412358
22 1 0.414601 0.955394 0.273366
3 1 0.327306 0.853934 0.281127
26 1 0.431335 0.802515 0.442542
30 1 0.249342 0.562764 0.637709
14 1 0.225807 0.811774 0.748439
46 1 0.461826 0.737589 0.532448
13 1 0.0976209 0.545121 0.836854
23 1 0.406943 0.697731 0.955951
16 1 0.113355 0.823178 0.967246
44 1 0.439143 0.846732 0.919895
24 1 0.372054 0.832744 1.04138
33 1 0.9577 0.0699989 -0.0286539
21 1 0.794552 0.182706 0.35349
47 1 0.766515 0.276631 0.445125
35 1 0.893532 0.421418 0.450943
48 1 0.705544 0.491748 0.655557
37 1 0.876647 0.525021 0.740678
6 1 0.705147 0.183645 0.899904
45 1 0.792408 0.0840022 0.956659
50 1 0.792539 0.261245 0.893518
32 1 0.540001 0.863708 0.0305719
28 1 0.634364 0.741834 -0.0492293
40 1 0.70242 0.660533 0.474889
11 1 0.806253 0.6552 0.409733
15 1 0.788021 0.957868 0.421766
12 1 0.64637 0.533704 0.617718
39 1 0.867189 0.862505 0.600714
19 1 0.835924 0.931534 0.834168
ITEM: TIMESTEP
2600
ITEM: NUMBER OF ATOMS
50
ITEM: BOX BOUNDS pp pp pp
-5.0000000000000000e+00 5.0000000000000000e+00
-5.0000000000000000e+00 5.0000000000000000e+00
-5.0000000000000000e+00 5.0000000000000000e+00
ITEM: ATOMS id type xs ys zs
8 1 0.14215 0.424502 0.0978557
9 1 0.217329 0.335448 0.104037
29 1 0.226494 0.158681 0.538332
10 1 0.0513631 0.00622584 0.494161
1 1 0.202019 0.188958 0.346527
4 1 0.0796187 0.0605462 0.2714
42 1 0.46868 0.364255 0.443519
36 1 0.030874 0.347559 0.0239351
5 1 0.0558463 0.223135 0.529962
18 1 0.0513861 0.305247 0.558579
43 1 0.0245925 0.273002 0.696055
2 1 0.458794 0.0664904 0.683844
38 1 0.303516 0.512692 0.94265
7 1 0.200922 0.335252 0.766597
20 1 0.225346 0.718421 0.0879092
41 1 0.191513 0.870598 0.0873189
49 1 0.286489 0.995747 0.0806659
17 1 0.185027 0.559989 0.320336
31 1 0.363667 0.620281 0.322672
34 1 0.0331748 0.782361 0.226347
27 1 0.039209 0.799091 0.531473
25 1 0.127761 0.830896 0.383479
22 1 0.429052 0.961141 0.259684
3 1 0.351339 0.817496 0.297288
26 1 0.432846 0.794998 0.424608
24 1 0.358238 0.822012 0.075144
30 1 0.292143 0.583763 0.642562
14 1 0.219951 0.783274 0.76906
46 1 0.453549 0.721778 0.528691
13 1 0.0772074 0.547862 0.799951
23 1 0.423336 0.716032 0.96006
16 1 0.113663 0.808399 0.963257
44 1 0.426015 0.838326 0.912367
35 1 0.912879 0.462204 0.470053
21 1 0.784352 0.1811 0.358062
47 1 0.767529 0.338261 0.430929
48 1 0.715158 0.482095 0.664963
50 1 0.776279 0.234361 0.896028
6 1 0.677706 0.172986 0.888776
45 1 0.813888 0.102975 0.986132
33 1 0.993248 0.0603646 0.944478
32 1 0.521531 0.851572 0.0287795
15 1 0.76792 0.936187 0.412677
40 1 0.692309 0.666607 0.49722
11 1 0.774468 0.67096 0.453192
12 1 0.669109 0.547651 0.590097
39 1 0.869322 0.830265 0.59771
19 1 0.813257 0.953711 0.810331
37 1 0.851151 0.544355 0.757053
28 1 0.605895 0.696405 0.917149
ITEM: TIMESTEP
2800
ITEM: NUMBER OF ATOMS
50
ITEM: BOX BOUNDS pp pp pp
-5.0000000000000000e+00 5.0000000000000000e+00
-5.0000000000000000e+00 5.0000000000000000e+00
-5.0000000000000000e+00 5.0000000000000000e+00
ITEM: ATOMS id type xs ys zs
8 1 0.136885 0.408295 0.104718
9 1 0.229061 0.352214 0.0711169
29 1 0.238314 0.135768 0.587431
10 1 0.049569 -0.0122864 0.502167
1 1 0.198825 0.171077 0.355701
4 1 0.0451292 0.0721669 0.26113
42 1 0.459029 0.338477 0.459557
36 1 0.0375359 0.348826 0.0472825
5 1 0.0374433 0.20908 0.534234
18 1 0.0565759 0.289098 0.528576
43 1 0.024176 0.306493 0.67283
2 1 0.491486 0.0621553 0.647929
38 1 0.28169 0.546949 0.951879
7 1 0.200656 0.347456 0.733237
20 1 0.232164 0.744043 0.0924813
41 1 0.22202 0.889194 0.109988
49 1 0.317723 1.00864 0.089437
17 1 0.193787 0.531592 0.328583
31 1 0.350723 0.64825 0.339274
34 1 0.0417727 0.792684 0.19528
27 1 0.049167 0.804822 0.578426
25 1 0.13316 0.830027 0.354599
22 1 0.443503 0.966888 0.246001
3 1 0.375371 0.781058 0.313449
26 1 0.434357 0.78748 0.406674
24 1 0.344423 0.81128 0.108909
30 1 0.334944 0.604761 0.647415
14 1 0.214095 0.754774 0.789682
46 1 0.445272 0.705966 0.524934
13 1 0.0567939 0.550602 0.763048
23 1 0.439729 0.734333 0.964168
16 1 0.113971 0.79362 0.959269
44 1 0.412887 0.829921 0.904839
35 1 0.932226 0.502991 0.489162
21 1 0.774152 0.179493 0.362634
47 1 0.768542 0.399892 0.416733
48 1 0.725221 0.47205 0.674758
50 1 0.760019 0.207477 0.898539
6 1 0.650265 0.162327 0.877647
45 1 0.835369 0.121948 1.0156
33 1 1.0288 0.0507302 0.91761
32 1 0.50306 0.839435 0.0269871
15 1 0.74782 0.914507 0.403587
40 1 0.678914 0.672321 0.521148
11 1 0.745967 0.687079 0.495056
12 1 0.6914 0.561991 0.562086
39 1 0.871455 0.798025 0.594707
19 1 0.79059 0.975888 0.786495
37 1 0.825655 0.563688 0.773429
28 1 0.577425 0.650977 0.883527
ITEM: TIMESTEP
3000
ITEM: NUMBER OF ATOMS
50
ITEM: BOX BOUNDS pp pp pp
-5.0000000000000000e+00 5.0000000000000000e+00
-5.0000000000000000e+00 5.0000000000000000e+00
-5.0000000000000000e+00 5.0000000000000000e+00
ITEM: ATOMS id type xs ys zs
8 1 0.13162 0.392088 0.111581
9 1 0.240793 0.36898 0.0381965
49 1 0.348958 0.0215248 0.0982082
36 1 0.0441978 0.350092 0.07063
1 1 0.195631 0.153195 0.364875
4 1 0.0106396 0.0837876 0.25086
42 1 0.449378 0.3127 0.475595
5 1 0.0156636 0.177769 0.538656
18 1 0.0651422 0.290205 0.498424
43 1 0.0237595 0.339983 0.649606
2 1 0.524179 0.0578202 0.612015
33 1 0.0643434 0.0410959 0.890742
7 1 0.200389 0.359659 0.699877
29 1 0.250134 0.112855 0.63653
20 1 0.238983 0.769664 0.0970535
41 1 0.252527 0.90779 0.132656
24 1 0.330607 0.800548 0.142674
17 1 0.202546 0.503196 0.336831
31 1 0.337737 0.676164 0.355896
34 1 0.0503707 0.803006 0.164213
26 1 0.436867 0.780427 0.390336
25 1 0.138558 0.829158 0.32572
22 1 0.457955 0.972635 0.232319
3 1 0.398446 0.744212 0.327994
30 1 0.377745 0.62576 0.652268
14 1 0.208239 0.726274 0.810303
46 1 0.436995 0.690155 0.521177
13 1 0.0363803 0.553343 0.726145
23 1 0.456122 0.752634 0.968277
16 1 0.114279 0.778841 0.955281
44 1 0.399758 0.821515 0.897312
38 1 0.259863 0.581207 0.961108
27 1 0.0591249 0.810553 0.62538
10 1 0.0477749 0.969201 0.510173
47 1 0.769555 0.461522 0.402537
21 1 0.763952 0.177887 0.367206
45 1 0.85685 0.140922 0.0450766
48 1 0.735283 0.462005 0.684553
50 1 0.743759 0.180593 0.901049
6 1 0.622823 0.151668 0.866519
32 1 0.48459 0.8273 0.0251952
15 1 0.727719 0.892826 0.394497
35 1 0.951574 0.543777 0.508272
11 1 0.736556 0.707947 0.52997
12 1 0.713691 0.576331 0.534075
39 1 0.873588 0.765786 0.591703
19 1 0.767923 0.998064 0.762659
37 1 0.800159 0.583021 0.789804
28 1 0.548956 0.605548 0.849905
40 1 0.646429 0.673287 0.552025
ITEM: TIMESTEP
3200
ITEM: NUMBER OF ATOMS
50
ITEM: BOX BOUNDS pp pp pp
-5.0000000000000000e+00 5.0000000000000000e+00
-5.0000000000000000e+00 5.0000000000000000e+00
-5.0000000000000000e+00 5.0000000000000000e+00
ITEM: ATOMS id type xs ys zs
8 1 0.128142 0.376593 0.119145
9 1 0.252525 0.385746 0.00527616
49 1 0.380192 0.0344136 0.106979
36 1 0.049072 0.350646 0.0932757
1 1 0.192437 0.135314 0.374049
4 1 -0.0238499 0.0954083 0.240591
42 1 0.439728 0.286922 0.491633
5 1 -0.00644474 0.145355 0.543248
18 1 0.0740373 0.292415 0.468101
43 1 0.0233429 0.373473 0.626381